REMARK  4 active torsions:
REMARK  status: ('A' for Active; 'I' for Inactive)
REMARK    1  A    between atoms: O_5  and  C_29 
REMARK    2  A    between atoms: C_11  and  C_18 
REMARK    3  A    between atoms: C_18  and  C_29 
REMARK    4  A    between atoms: C_24  and  C_30 
ROOT
HETATM    1  O   UNL     1       0.419   2.099   0.248  1.00  0.00    -0.352 OA
HETATM    2  O   UNL     1       3.158   2.221   0.857  1.00  0.00    -0.301 OA
HETATM    3  O   UNL     1       2.028  -2.676  -2.086  1.00  0.00    -0.291 OA
HETATM    4  O   UNL     1       4.906   2.760  -0.557  1.00  0.00    -0.264 OA
HETATM    5  C   UNL     1       0.126  -0.119   1.219  1.00  0.00     0.045 C 
HETATM    6  C   UNL     1       2.716   0.184  -0.052  1.00  0.00     0.050 C 
HETATM    7  C   UNL     1       2.172  -1.240  -0.105  1.00  0.00     0.059 C 
HETATM    8  C   UNL     1       0.603  -1.100   0.052  1.00  0.00     0.023 C 
HETATM    9  C   UNL     1       0.925   1.227   1.290  1.00  0.00     0.147 C 
HETATM   10  C   UNL     1       2.424   1.017   1.153  1.00  0.00     0.153 C 
HETATM   11  C   UNL     1       4.193   0.421  -0.294  1.00  0.00     0.099 C 
HETATM   12  C   UNL     1      -1.176   0.518   0.840  1.00  0.00    -0.023 C 
HETATM   13  C   UNL     1      -0.886   1.645  -0.092  1.00  0.00     0.134 C 
HETATM   14  C   UNL     1       0.139  -0.767   2.612  1.00  0.00     0.007 C 
HETATM   15  C   UNL     1       2.584  -1.731  -1.525  1.00  0.00     0.172 C 
HETATM   16  C   UNL     1       2.798  -2.208   0.906  1.00  0.00     0.008 C 
HETATM   17  C   UNL     1      -2.459   0.496   1.225  1.00  0.00    -0.045 C 
HETATM   18  C   UNL     1      -2.023   2.609   0.203  1.00  0.00     0.042 C 
HETATM   19  C   UNL     1       4.159   1.930  -0.064  1.00  0.00     0.275 C 
HETATM   20  C   UNL     1      -3.190   1.700   0.658  1.00  0.00     0.045 C 
HETATM   21  C   UNL     1       4.466  -0.085  -1.677  1.00  0.00    -0.014 C 
HETATM   22  C   UNL     1       5.227  -0.148   0.684  1.00  0.00     0.014 C 
HETATM   23  C   UNL     1       3.739  -1.069  -2.236  1.00  0.00     0.033 C 
HETATM   24  C   UNL     1      -3.157  -0.420   2.167  1.00  0.00     0.026 C 
ENDROOT
BRANCH   8  25
HETATM   25  C   UNL     1      -0.159  -2.439   0.105  1.00  0.00     0.097 C 
BRANCH  25  26
HETATM   26  C   UNL     1      -1.645  -2.222   0.082  1.00  0.00     0.272 C 
HETATM   27  O   UNL     1      -2.229  -1.297  -0.466  1.00  0.00    -0.264 OA
BRANCH  26  28
HETATM   28  O   UNL     1      -2.233  -3.237   0.782  1.00  0.00    -0.299 OA
HETATM   29  C   UNL     1      -3.661  -3.185   0.862  1.00  0.00     0.184 C 
ENDBRANCH  26  28
ENDBRANCH  25  26
ENDBRANCH   8  25
BRANCH  20  30
HETATM   30  C   UNL     1      -4.085   1.324  -0.459  1.00  0.00     0.008 A 
HETATM   31  C   UNL     1      -5.459   1.010  -0.374  1.00  0.00     0.025 A 
HETATM   32  C   UNL     1      -5.861   0.726  -1.658  1.00  0.00     0.122 A 
HETATM   33  O   UNL     1      -4.819   0.846  -2.522  1.00  0.00    -0.303 OA
HETATM   34  C   UNL     1      -3.740   1.211  -1.782  1.00  0.00     0.119 A 
ENDBRANCH  20  30
TORSDOF 4
